 Gaussian 03, Revision D.01,
 Gaussian 03:  AM64L-G03RevD.01 13-Oct-2005

 -------------------------
 # b3lyp/6-31+g** opt freq
 -------------------------

 ---------------
 gaba_at and plp
 ---------------
 Symbolic Z-matrix:
 Charge =  1 Multiplicity = 1

 SCF Done:  E(RB+HF-LYP) =  -879.967513303     A.U. after   16 cycles
 SCF Done:  E(RB+HF-LYP) =  -879.968053446     A.U. after   16 cycles
 SCF Done:  E(RB+HF-LYP) =  -879.968083439     A.U. after   12 cycles
 SCF Done:  E(RB+HF-LYP) =  -879.968132569     A.U. after   21 cycles
 SCF Done:  E(RB+HF-LYP) =  -879.968177556     A.U. after   12 cycles
 SCF Done:  E(RB+HF-LYP) =  -879.968185768     A.U. after   17 cycles
 SCF Done:  E(RB+HF-LYP) =  -879.968185375     A.U. after   16 cycles
 SCF Done:  E(RB+HF-LYP) =  -879.968189105     A.U. after   18 cycles
 SCF Done:  E(RB+HF-LYP) =  -879.968193643     A.U. after   19 cycles
 SCF Done:  E(RB+HF-LYP) =  -879.968195251     A.U. after   26 cycles
 SCF Done:  E(RB+HF-LYP) =  -879.968196199     A.U. after   10 cycles
 SCF Done:  E(RB+HF-LYP) =  -879.968196328     A.U. after   24 cycles
 SCF Done:  E(RB+HF-LYP) =  -879.968196473     A.U. after    9 cycles
 SCF Done:  E(RB+HF-LYP) =  -879.968196537     A.U. after   17 cycles
 SCF Done:  E(RB+HF-LYP) =  -879.968196620     A.U. after    9 cycles
 SCF Done:  E(RB+HF-LYP) =  -879.968196666     A.U. after   16 cycles
 SCF Done:  E(RB+HF-LYP) =  -879.968196718     A.U. after   11 cycles
 SCF Done:  E(RB+HF-LYP) =  -879.968196740     A.U. after    8 cycles
 SCF Done:  E(RB+HF-LYP) =  -879.968196759     A.U. after    8 cycles
 Optimization completed.
    -- Stationary point found.
 Normal termination of Gaussian 03 at Tue Nov 10 20:44:01 2009.

 ---------------------------------------------------------------------
 #N Geom=AllCheck Guess=Read SCRF=Check GenChk RB3LYP/6-31+G(d,p) Freq
 ---------------------------------------------------------------------

 gaba_at and plp
 ---------------
 Redundant internal coordinates taken from checkpoint file:
 /tmp/Gau-18880.chk
 Charge =  1 Multiplicity = 1

                         Standard orientation:
 ---------------------------------------------------------------------
 Center     Atomic     Atomic              Coordinates (Angstroms)
 Number     Number      Type              X           Y           Z
 ---------------------------------------------------------------------
    1          6             0       -3.829095   -1.908332    0.000175
    2          7             0       -4.600099   -0.773902   -0.000125
    3          6             0       -4.145505    0.479227   -0.000292
    4          6             0       -2.707544    0.683225   -0.000196
    5          6             0       -1.874552   -0.504291    0.000167
    6          6             0       -2.455732   -1.807145    0.000335
    7          6             0       -5.083053    1.635113   -0.000629
    8          8             0       -2.250850    1.861467   -0.000373
    9          6             0       -0.450995   -0.343146    0.000314
   10          7             0        0.108455    0.846387    0.000112
   11          6             0        1.491331    1.178152    0.000290
   12          6             0        2.400307   -0.025939    0.000566
   13          6             0        3.916232    0.169160   -0.000009
   14          6             0        4.616485   -1.179449   -0.000450
   15          8             0        5.955139   -1.032729   -0.000406
   16          6             0       -1.627675   -3.069060    0.000632
   17          6             0        1.730450    2.510990    0.000187
   18          6             0        3.004063    3.291387    0.000524
   19          8             0        4.058421   -2.256845   -0.000804
   20          1             0       -0.985541   -3.128095    0.885889
   21          1             0       -4.365264   -2.847150    0.000266
   22          1             0       -5.609042   -0.902149   -0.000198
   23          1             0       -6.129201    1.318444   -0.000223
   24          1             0       -4.896116    2.266328    0.874670
   25          1             0       -4.896565    2.265477   -0.876646
   26          1             0        0.190269   -1.216008    0.000620
   27          1             0       -2.268340   -3.952943    0.001075
   28          1             0       -0.985889   -3.128690   -0.884841
   29          1             0        3.025369    3.952159   -0.875343
   30          1             0        3.911993    2.695368    0.000578
   31          1             0        0.840946    3.141889   -0.000098
   32          1             0        2.147177   -0.643835    0.872519
   33          1             0        2.146741   -0.644507   -0.870772
   34          1             0       -0.611384    1.609950   -0.000115
   35          1             0        4.266010    0.718879    0.879592
   36          1             0        4.265262    0.719032   -0.879823
   37          1             0        6.360050   -1.917845   -0.000748
   38          1             0        3.025058    3.951794    0.876682
 ---------------------------------------------------------------------

 SCF Done:  E(RB+HF-LYP) =  -879.968196765     A.U. after    4 cycles

 The electronic state is 1-A.
 Alpha  occ. eigenvalues --  -19.30371 -19.26022 -19.25164 -14.58310 -14.54595
 Alpha  occ. eigenvalues --  -10.43075 -10.40706 -10.40604 -10.40499 -10.38008
 Alpha  occ. eigenvalues --  -10.37596 -10.36798 -10.35690 -10.33965 -10.32894
 Alpha  occ. eigenvalues --  -10.32741 -10.32259 -10.32157 -10.30334  -1.21279
 Alpha  occ. eigenvalues --   -1.16975  -1.15015  -1.12469  -1.12171  -0.98697
 Alpha  occ. eigenvalues --   -0.95217  -0.93457  -0.90536  -0.88087  -0.85721
 Alpha  occ. eigenvalues --   -0.83611  -0.82336  -0.80118  -0.75525  -0.75166
 Alpha  occ. eigenvalues --   -0.72892  -0.69757  -0.69632  -0.66734  -0.65867
 Alpha  occ. eigenvalues --   -0.64431  -0.60894  -0.60446  -0.59700  -0.58995
 Alpha  occ. eigenvalues --   -0.58330  -0.57772  -0.56847  -0.56492  -0.55734
 Alpha  occ. eigenvalues --   -0.55630  -0.53965  -0.53268  -0.53066  -0.52927
 Alpha  occ. eigenvalues --   -0.52806  -0.52555  -0.52221  -0.50896  -0.50493
 Alpha  occ. eigenvalues --   -0.50423  -0.49791  -0.47790  -0.47005  -0.43536
 Alpha  occ. eigenvalues --   -0.42632  -0.39368  -0.38620  -0.38519  -0.35042
 Alpha virt. eigenvalues --   -0.23832  -0.15552  -0.14367  -0.12698  -0.10652
 Alpha virt. eigenvalues --   -0.10525  -0.09475  -0.09174  -0.08809  -0.07666
 Alpha virt. eigenvalues --   -0.07048  -0.06949  -0.06701  -0.05978  -0.05723

 Mulliken atomic charges:
              1
     1  C   -0.266805
     2  N   -0.218516
     3  C    0.210482
     4  C    0.198200
     5  C    0.319965
     6  C    0.209249
     7  C   -0.568220
     8  O   -0.611004
     9  C    0.204511
    10  N   -0.187457
    11  C    0.663443
    12  C   -0.084006
    13  C   -1.116973
    14  C    0.626091
    15  O   -0.440079
    16  C   -0.826223
    17  C    0.021565
    18  C   -0.709854
    19  O   -0.463012
    20  H    0.187470
    21  H    0.173859
    22  H    0.337359
    23  H    0.154421
    24  H    0.213010
    25  H    0.213003
    26  H    0.171110
    27  H    0.175921
    28  H    0.187515
    29  H    0.189827
    30  H    0.159515
    31  H    0.150720
    32  H    0.182313
    33  H    0.182271
    34  H    0.390655
    35  H    0.196430
    36  H    0.196438
    37  H    0.386970
    38  H    0.189837
 Sum of Mulliken charges=   1.00000

 Dipole moment (field-independent basis, Debye):
    X=    -6.8006    Y=    -0.7988    Z=     0.0013  Tot=     6.8473
 Quadrupole moment (field-independent basis, Debye-Ang):
   XX=   -17.9116   YY=   -91.7435   ZZ=  -111.9187
   XY=    16.8136   XZ=     0.0041   YZ=    -0.0023

  Exact polarizability: 317.650  36.205 239.190   0.015  -0.009 106.744
 Approx polarizability: 446.242  69.172 410.485   0.029  -0.025 168.426

                     1                      2                      3
                     A                      A                      A
 Frequencies --    15.2562                31.8059                49.9045
 Red. masses --     4.5970                 9.7346                 5.8704
 Frc consts  --     0.0006                 0.0058                 0.0086
 IR Inten    --     0.6708                 2.2101                 2.3820

                     4                      5                      6
                     A                      A                      A
 Frequencies --    58.3531                65.3214               108.1541
 Red. masses --     4.3046                 2.0390                 1.4225
 Frc consts  --     0.0086                 0.0051                 0.0098
 IR Inten    --     6.3577                 0.1149                 1.3811

                     7                      8                      9
                     A                      A                      A
 Frequencies --   110.0063               115.8974               132.7716
 Red. masses --     5.0966                 1.3001                 1.9010
 Frc consts  --     0.0363                 0.0103                 0.0197
 IR Inten    --     0.1350                 1.6922                 0.7701

                    10                     11                     12
                     A                      A                      A
 Frequencies --   141.8623               152.3906               172.2442
 Red. masses --     3.0301                 1.8803                 1.0922
 Frc consts  --     0.0359                 0.0257                 0.0191
 IR Inten    --     1.8603                 0.1323                 0.2292

                    13                     14                     15
                     A                      A                      A
 Frequencies --   191.6602               203.4764               211.8166
 Red. masses --     4.9175                 3.4413                 4.4086
 Frc consts  --     0.1064                 0.0839                 0.1165
 IR Inten    --     0.1917                 0.0399                 0.8533

                    16                     17                     18
                     A                      A                      A
 Frequencies --   265.2461               292.8732               316.0517
 Red. masses --     4.9212                 2.9351                 3.3498
 Frc consts  --     0.2040                 0.1483                 0.1971
 IR Inten    --     5.7475                 0.7513                 1.6776

                    19                     20                     21
                     A                      A                      A
 Frequencies --   335.5063               338.0466               375.3325
 Red. masses --     3.4546                 3.3688                 2.8720
 Frc consts  --     0.2291                 0.2268                 0.2384
 IR Inten    --     4.0450                 0.6928                 1.7411

                    22                     23                     24
                     A                      A                      A
 Frequencies --   390.7614               431.4323               466.0109
 Red. masses --     4.5278                 5.8773                 4.9563
 Frc consts  --     0.4073                 0.6445                 0.6342
 IR Inten    --    11.0924                28.3475                 0.1242

                    25                     26                     27
                     A                      A                      A
 Frequencies --   481.1974               519.8783               540.3656
 Red. masses --     2.6600                 5.2853                 5.6116
 Frc consts  --     0.3629                 0.8416                 0.9654
 IR Inten    --     4.6580                12.2180                 8.2356

                    28                     29                     30
                     A                      A                      A
 Frequencies --   543.9800               547.6872               586.1338
 Red. masses --     3.6477                 1.4910                 4.0633
 Frc consts  --     0.6360                 0.2635                 0.8225
 IR Inten    --     0.5329                36.9411                16.6377

                    31                     32                     33
                     A                      A                      A
 Frequencies --   611.7868               614.5645               650.1270
 Red. masses --     3.5327                 4.7605                 4.3506
 Frc consts  --     0.7790                 1.0593                 1.0834
 IR Inten    --     3.6559                31.8077                 4.1801

                    34                     35                     36
                     A                      A                      A
 Frequencies --   669.0102               722.8828               754.8113
 Red. masses --     1.4650                 4.6659                 3.2016
 Frc consts  --     0.3863                 1.4366                 1.0747
 IR Inten    --    91.5347                 2.7765                 3.7519

                    37                     38                     39
                     A                      A                      A
 Frequencies --   763.6135               784.7467               814.5131
 Red. masses --     5.1086                 1.4365                 1.5338
 Frc consts  --     1.7551                 0.5212                 0.5995
 IR Inten    --     0.5179                63.4325                11.1598

                    40                     41                     42
                     A                      A                      A
 Frequencies --   817.4904               853.4823               875.1517
 Red. masses --     3.1641                 1.3124                 1.1875
 Frc consts  --     1.2458                 0.5633                 0.5359
 IR Inten    --     2.7225                17.3680                 3.6973

                    43                     44                     45
                     A                      A                      A
 Frequencies --   898.5412               949.4849               963.3837
 Red. masses --     3.0472                 1.6580                 1.7565
 Frc consts  --     1.4495                 0.8807                 0.9605
 IR Inten    --    15.0428                 0.9573                12.6453

                    46                     47                     48
                     A                      A                      A
 Frequencies --  1004.1865              1031.6389              1044.4436
 Red. masses --     2.6758                 1.6918                 1.5006
 Frc consts  --     1.5898                 1.0609                 0.9645
 IR Inten    --    30.0014                25.6336                 5.3098

                    49                     50                     51
                     A                      A                      A
 Frequencies --  1049.9988              1050.7380              1056.0689
 Red. masses --     1.9785                 2.0045                 1.5254
 Frc consts  --     1.2852                 1.3039                 1.0024
 IR Inten    --    38.1162                 0.0067                 0.4905

                    52                     53                     54
                     A                      A                      A
 Frequencies --  1060.3095              1066.9133              1090.6852
 Red. masses --     1.5237                 3.5301                 1.1032
 Frc consts  --     1.0093                 2.3675                 0.7732
 IR Inten    --     5.0903                15.4904                69.0114

                    55                     56                     57
                     A                      A                      A
 Frequencies --  1102.2652              1120.7694              1165.1732
 Red. masses --     3.0986                 3.0020                 2.2971
 Frc consts  --     2.2181                 2.2217                 1.8374
 IR Inten    --    12.2180                 9.8344               306.1054

                    58                     59                     60
                     A                      A                      A
 Frequencies --  1199.6879              1212.7629              1215.2460
 Red. masses --     2.8271                 1.1705                 2.5889
 Frc consts  --     2.3974                 1.0143                 2.2526
 IR Inten    --    28.5323                 0.0097                47.9217

                    61                     62                     63
                     A                      A                      A
 Frequencies --  1272.6542              1288.4598              1307.1179
 Red. masses --     1.7076                 1.4497                 2.3122
 Frc consts  --     1.6295                 1.4180                 2.3276
 IR Inten    --   159.5075                15.5743                47.7331

                    64                     65                     66
                     A                      A                      A
 Frequencies --  1343.7920              1344.7367              1364.1844
 Red. masses --     1.0879                 1.6430                 2.1114
 Frc consts  --     1.1574                 1.7505                 2.3151
 IR Inten    --     1.9940                46.2779                23.9037

                    67                     68                     69
                     A                      A                      A
 Frequencies --  1377.9146              1415.0084              1417.5612
 Red. masses --     2.3625                 1.4456                 1.3612
 Frc consts  --     2.6428                 1.7054                 1.6116
 IR Inten    --    47.4684                16.8263                52.0701

                    70                     71                     72
                     A                      A                      A
 Frequencies --  1421.9417              1423.2389              1431.8204
 Red. masses --     1.5521                 1.6294                 1.3894
 Frc consts  --     1.8489                 1.9446                 1.6783
 IR Inten    --   126.8329                 3.2014                 0.6671

                    73                     74                     75
                     A                      A                      A
 Frequencies --  1449.2275              1453.2612              1453.7451
 Red. masses --     1.5365                 2.0886                 1.0422
 Frc consts  --     1.9013                 2.5989                 1.2977
 IR Inten    --    24.0586                41.4293                13.1759

                    76                     77                     78
                     A                      A                      A
 Frequencies --  1476.9760              1478.2516              1483.4049
 Red. masses --     2.4382                 1.1566                 1.0420
 Frc consts  --     3.1337                 1.4891                 1.3509
 IR Inten    --    20.8575                 7.2625                 7.1418

                    79                     80                     81
                     A                      A                      A
 Frequencies --  1490.0568              1492.0934              1499.2952
 Red. masses --     1.1278                 1.0415                 1.1343
 Frc consts  --     1.4754                 1.3661                 1.5023
 IR Inten    --     6.6027                13.9475                24.8633

                    82                     83                     84
                     A                      A                      A
 Frequencies --  1500.3472              1510.2306              1597.9179
 Red. masses --     1.3312                 1.2663                 4.2920
 Frc consts  --     1.7655                 1.7017                 6.4568
 IR Inten    --     6.3175                19.1144                29.2150

                    85                     86                     87
                     A                      A                      A
 Frequencies --  1619.6624              1651.4482              1677.7740
 Red. masses --     4.3274                 3.2375                 2.6033
 Frc consts  --     6.6884                 5.2023                 4.3175
 IR Inten    --   147.8276                25.8902                28.0954

                    88                     89                     90
                     A                      A                      A
 Frequencies --  1699.2321              1814.0626              2984.0323
 Red. masses --     5.6455                10.0025                 1.0906
 Frc consts  --     9.6041                19.3938                 5.7217
 IR Inten    --   227.2216               277.6346               113.1063

                    91                     92                     93
                     A                      A                      A
 Frequencies --  3027.3210              3040.6578              3050.8857
 Red. masses --     1.0600                 1.0452                 1.0362
 Frc consts  --     5.7236                 5.6937                 5.6827
 IR Inten    --    10.7964                 1.5088                 3.2116

                    94                     95                     96
                     A                      A                      A
 Frequencies --  3051.1303              3058.5086              3072.0419
 Red. masses --     1.0379                 1.1009                 1.0606
 Frc consts  --     5.6926                 6.0679                 5.8976
 IR Inten    --     5.1251                 4.0259                 4.6241

                    97                     98                     99
                     A                      A                      A
 Frequencies --  3082.2078              3111.5548              3114.3612
 Red. masses --     1.0985                 1.1018                 1.0996
 Frc consts  --     6.1487                 6.2849                 6.2840
 IR Inten    --     2.2080                 3.2863                 0.0273

                   100                    101                    102
                     A                      A                      A
 Frequencies --  3119.3666              3141.1154              3142.6550
 Red. masses --     1.1034                 1.1053                 1.0881
 Frc consts  --     6.3255                 6.4254                 6.3319
 IR Inten    --     2.1193                12.6444                 2.4442

                   103                    104                    105
                     A                      A                      A
 Frequencies --  3144.9800              3209.0375              3243.1653
 Red. masses --     1.1005                 1.0928                 1.0902
 Frc consts  --     6.4135                 6.6301                 6.7564
 IR Inten    --     8.5254                15.0652                 3.6247

                   106                    107                    108
                     A                      A                      A
 Frequencies --  3259.1743              3556.1233              3746.4293
 Red. masses --     1.0944                 1.0789                 1.0647
 Frc consts  --     6.8495                 8.0385                 8.8045
 IR Inten    --     2.7457               141.0456               109.1580

 - Thermochemistry -
 -------------------
 Temperature   298.150 Kelvin.  Pressure   1.00000 Atm.
 Atom  1 has atomic number  6 and mass  12.00000

 Molecular mass:   263.13957 amu.
 Principal axes and moments of inertia in atomic units:
                           1         2         3
     EIGENVALUES --  2767.18273********************
           X            0.99992   0.01255   0.00000
           Y           -0.01255   0.99992  -0.00001
           Z            0.00000   0.00001   1.00000
 This molecule is an asymmetric top.
 Rotational symmetry number  1.
 Warning -- assumption of classical behavior for rotation
           may cause significant error
 Rotational temperatures (Kelvin)      0.03130     0.00785     0.00630
 Rotational constants (GHZ):           0.65219     0.16350     0.13125
 Zero-point vibrational energy     833295.1 (Joules/Mol)
                                  199.16231 (Kcal/Mol)
 Warning -- explicit consideration of  32 degrees of freedom as
           vibrations may cause significant error
 Vibrational temperatures:     21.95    45.76    71.80    83.96    93.98
          (Kelvin)            155.61   158.27   166.75   191.03   204.11
                              219.26   247.82   275.76   292.76   304.76
                              381.63   421.38   454.73   482.72   486.37
                              540.02   562.22   620.73   670.48   692.33
                              747.99   777.46   782.66   788.00   843.31
                              880.22   884.22   935.39   962.56  1040.07
                             1086.00  1098.67  1129.07  1171.90  1176.18
                             1227.97  1259.15  1292.80  1366.10  1386.09
                             1444.80  1484.30  1502.72  1510.71  1511.78
                             1519.45  1525.55  1535.05  1569.25  1585.91
                             1612.54  1676.42  1726.08  1744.89  1748.47
                             1831.06  1853.80  1880.65  1933.41  1934.77
                             1962.75  1982.51  2035.88  2039.55  2045.85
                             2047.72  2060.07  2085.11  2090.92  2091.61
                             2125.04  2126.87  2134.29  2143.86  2146.79
                             2157.15  2158.66  2172.88  2299.04  2330.33
                             2376.06  2413.94  2444.81  2610.03  4293.35
                             4355.63  4374.82  4389.54  4389.89  4400.51
                             4419.98  4434.60  4476.83  4480.87  4488.07
                             4519.36  4521.57  4524.92  4617.08  4666.19
                             4689.22  5116.46  5390.27

 Zero-point correction=                           0.317385 (Hartree/Particle)
 Thermal correction to Energy=                    0.337186
 Thermal correction to Enthalpy=                  0.338130
 Thermal correction to Gibbs Free Energy=         0.267170
 Sum of electronic and zero-point Energies=           -879.650811
 Sum of electronic and thermal Energies=              -879.631011
 Sum of electronic and thermal Enthalpies=            -879.630067
 Sum of electronic and thermal Free Energies=         -879.701027

                     E (Thermal)             CV                S
                      KCal/Mol        Cal/Mol-Kelvin    Cal/Mol-Kelvin
 Total                  211.587             73.126            149.348
 Electronic               0.000              0.000              0.000
 Translational            0.889              2.981             42.602
 Rotational               0.889              2.981             34.395
 Vibrational            209.810             67.164             72.351
 Vibration  1             0.593              1.986              7.172
 Vibration  2             0.594              1.983              5.713
 Vibration  3             0.595              1.978              4.821
 Vibration  4             0.596              1.974              4.512
 Vibration  5             0.597              1.971              4.290
 Vibration  6             0.606              1.943              3.302
 Vibration  7             0.606              1.941              3.269
 Vibration  8             0.608              1.936              3.168
 Vibration  9             0.613              1.921              2.906
 Vibration 10             0.615              1.911              2.779
 Vibration 11             0.619              1.900              2.642
 Vibration 12             0.626              1.877              2.411
 Vibration 13             0.634              1.851              2.212
 Vibration 14             0.639              1.835              2.101
 Vibration 15             0.643              1.823              2.028
 Vibration 16             0.671              1.737              1.627
 Vibration 17             0.688              1.687              1.457
 Vibration 18             0.703              1.643              1.330
 Vibration 19             0.717              1.605              1.233
 Vibration 20             0.718              1.599              1.221
 Vibration 21             0.746              1.523              1.058
 Vibration 22             0.758              1.490              0.997
 Vibration 23             0.792              1.402              0.854
 Vibration 24             0.823              1.325              0.749
 Vibration 25             0.837              1.292              0.707
 Vibration 26             0.875              1.206              0.610
 Vibration 27             0.895              1.161              0.565
 Vibration 28             0.899              1.153              0.557
 Vibration 29             0.903              1.145              0.549
 Vibration 30             0.943              1.061              0.474
 Vibration 31             0.971              1.007              0.430
 Vibration 32             0.974              1.001              0.425

 Normal termination of Gaussian 03 at Tue Nov 10 23:49:25 2009.
